;
;   File unedited.top  was generated
;   By user: mcarlozo (240668)
;   On host:qa-rtx6k-012.crc.nd.edu 
;   At date:Sat. December  6 14:07:47 2025 
;
;   This is a standalone topology file
;
;   Created by:
;   ParmEd:       project.py, VERSION4.3.0 
;   Executable:   project.py
;   Library dir:  /afs/crc.nd.edu/x86_64_linux/g/gromacs/2022.1/build-plumed/share/gromacs/top
;   Command line:
;     /scratch365/mcarlozo/ES-FFO/Opt_ES/ift_val_opt/project.py run -o IFT_val -j 47295e917e68bf21b7b836901f92965f
;

[ defaults ]
; nbfunc        comb-rule       gen-pairs       fudgeLJ fudgeQQ
1               2               yes              0.5       0.8333333

[ atomtypes ]
; name    at.num    mass    charge ptype  sigma      epsilon
C1             6  12.010780  0.00000000  A       0.338501       0.469553
N1             7  14.006720  0.00000000  A       0.234115       0.651776
C2             6  12.010780  0.00000000  A       0.374759       0.482935
O1             8  15.999430  0.00000000  A        0.36374        0.62362
H1             1   1.007947  0.00000000  A        0.17721       0.065651
H2             1   1.007947  0.00000000  A       0.269379        0.02812


[ moleculetype ]
; Name            nrexcl
RES          3

[ atoms ]
;   nr       type  resnr residue  atom   cgnr    charge       mass  typeB    chargeB      massB
; residue    1 RES rtp RES q -0.0
    1         C1      1    RES      C      1 -0.31073100  12.010780   ; qtot -0.310731
    2         N1      1    RES      N      2 0.08691300  14.006720   ; qtot -0.223818
    3         C1      1    RES      C      3 -0.31073100  12.010780   ; qtot -0.534549
    4         C2      1    RES      C      4 0.32153400  12.010780   ; qtot -0.213015
    5         O1      1    RES      O      5 -0.52245200  15.999430   ; qtot -0.735467
    6         H1      1    RES      H      6 0.11512700   1.007947   ; qtot -0.620340
    7         H1      1    RES      H      7 0.11512700   1.007947   ; qtot -0.505213
    8         H1      1    RES      H      8 0.11512700   1.007947   ; qtot -0.390086
    9         H1      1    RES      H      9 0.11512700   1.007947   ; qtot -0.274959
   10         H1      1    RES      H     10 0.11512700   1.007947   ; qtot -0.159832
   11         H1      1    RES      H     11 0.11512700   1.007947   ; qtot -0.044705
   12         H2      1    RES      H     12 0.04470500   1.007947   ; qtot -0.000000

[ bonds ]
;    ai     aj funct         c0         c1         c2         c3
      1      2     1   0.14600 276645.436000
      1      6     1   0.10930 281080.370000
      1      7     1   0.10930 281080.370000
      1      8     1   0.10930 281080.370000
      2      3     1   0.14600 276645.436000
      2      4     1   0.13450 400156.771000
      3      9     1   0.10930 281080.370000
      3     10     1   0.10930 281080.370000
      3     11     1   0.10930 281080.370000
      4      5     1   0.12140 542245.941000
      4     12     1   0.11050 267273.374000

[ pairs ]
;    ai     aj funct         c0         c1         c2         c3
      1      5     1
      3      5     1
      3      6     1
      4      6     1
      3      7     1
      4      7     1
      3      8     1
      4      8     1
      1      9     1
      4      9     1
      1     10     1
      4     10     1
      1     11     1
      4     11     1
      1     12     1
      3     12     1

[ angles ]
;    ai     aj     ak funct         c0         c1         c2         c3
      1      2      3     1   115.5598577 528.268000
      1      2      4     1   121.3501692 534.886000
      2      1      6     1   109.3197744 416.887000
      2      1      7     1   109.3197744 416.887000
      2      1      8     1   109.3197744 416.887000
      2      3      9     1   109.3197744 416.887000
      2      3     10     1   109.3197744 416.887000
      2      3     11     1   109.3197744 416.887000
      2      4      5     1   122.0302701 634.543000
      2      4     12     1   112.1897199 438.405000
      3      2      4     1   121.3501692 534.886000
      5      4     12     1   123.2598375 450.943000
      6      1      7     1   109.5501034 327.856000
      6      1      8     1   109.5501034 327.856000
      7      1      8     1   109.5501034 327.856000
      9      3     10     1   109.5501034 327.856000
      9      3     11     1   109.5501034 327.856000
     10      3     11     1   109.5501034 327.856000

[ dihedrals ]
;    ai     aj     ak     al funct         c0         c1         c2         c3         c4         c5
      1      2      3      9     1  0.0000000  57.1538622  3
      1      2      3     10     1  0.0000000  57.1538622  3
      1      2      3     11     1  0.0000000  57.1538622  3
      1      2      4      5     1  180.0000000  10.4600091  2
      1      2      4     12     1  180.0000000  10.4600091  2
      3      2      1      6     1  0.0000000  57.1538622  3
      3      2      1      7     1  0.0000000  57.1538622  3
      3      2      1      8     1  0.0000000  57.1538622  3
      3      2      4      5     1  180.0000000  10.4600091  2
      3      2      4     12     1  180.0000000  10.4600091  2
      4      2      1      6     1  0.0000000  69.0299074  3
      4      2      1      7     1  0.0000000  69.0299074  3
      4      2      1      8     1  0.0000000  69.0299074  3
      4      2      3      9     1  0.0000000  69.0299074  3
      4      2      3     10     1  0.0000000  69.0299074  3
      4      2      3     11     1  0.0000000  69.0299074  3

[ system ]
; Name
Generic title

[ molecules ]
; Compound       #mols
RES               3348
