;
;   File unedited.top  was generated
;   By user: mcarlozo (240668)
;   On host:qa-rtx6k-002.crc.nd.edu 
;   At date:Wed. January  3 11:40:23 2026 
;
;   This is a standalone topology file
;
;   Created by:
;   ParmEd:       project.py, VERSION4.3.0 
;   Executable:   project.py
;   Library dir:  /afs/crc.nd.edu/x86_64_linux/g/gromacs/2022.1/build-plumed/share/gromacs/top
;   Command line:
;     /scratch365/mcarlozo/ES-FFO/Opt_ES/ift_val_opt/project.py run -o IFT_val -j 140944870a27a6b6c40454f3e2efe541
;

[ defaults ]
; nbfunc        comb-rule       gen-pairs       fudgeLJ fudgeQQ
1               2               yes              0.5       0.8333333

[ atomtypes ]
; name    at.num    mass    charge ptype  sigma      epsilon
C1             6  12.010780  0.00000000  A       0.384619       0.526895
O1             8  15.999430  0.00000000  A       0.295186       0.860301
H1             1   1.007947  0.00000000  A       0.200946       0.032258
H2             1   1.007947  0.00000000  A              0              0


[ moleculetype ]
; Name            nrexcl
RES          3

[ atoms ]
;   nr       type  resnr residue  atom   cgnr    charge       mass  typeB    chargeB      massB
; residue    1 RES rtp RES q 0.0
    1         C1      1    RES      C      1 0.24864300  12.010780   ; qtot 0.248643
    2         O1      1    RES      O      2 -0.67228700  15.999430   ; qtot -0.423644
    3         H1      1    RES      H      3 0.00274800   1.007947   ; qtot -0.420896
    4         H1      1    RES      H      4 0.00274800   1.007947   ; qtot -0.418148
    5         H1      1    RES      H      5 0.00274800   1.007947   ; qtot -0.415400
    6         H2      1    RES      H      6 0.41540000   1.007947   ; qtot -0.000000

[ bonds ]
;    ai     aj funct         c0         c1         c2         c3
      1      2     1   0.14260 262838.440000
      1      3     1   0.10930 281080.370000
      1      4     1   0.10930 281080.370000
      1      5     1   0.10930 281080.370000
      2      6     1   0.09740 309281.363000

[ pairs ]
;    ai     aj funct         c0         c1         c2         c3
      3      6     1
      4      6     1
      5      6     1

[ angles ]
;    ai     aj     ak funct         c0         c1         c2         c3
      1      2      6     1   108.1744317 394.056000
      2      1      3     1   109.8933051 426.515000
      2      1      4     1   109.8933051 426.515000
      2      1      5     1   109.8933051 426.515000
      3      1      4     1   109.5495304 327.856000
      3      1      5     1   109.5495304 327.856000
      4      1      5     1   109.5495304 327.856000

[ dihedrals ]
;    ai     aj     ak     al funct         c0         c1         c2         c3         c4         c5
      3      1      2      6     1  0.0000000  0.6990000  3
      4      1      2      6     1  0.0000000  0.6990000  3
      5      1      2      6     1  0.0000000  0.6990000  3

[ system ]
; Name
Generic title

[ molecules ]
; Compound       #mols
RES               6166
