;
;   File unedited.top  was generated
;   By user: mcarlozo (240668)
;   On host:qa-a10-011.crc.nd.edu 
;   At date:Wed. January  3 11:38:08 2026 
;
;   This is a standalone topology file
;
;   Created by:
;   ParmEd:       project.py, VERSION4.3.0 
;   Executable:   project.py
;   Library dir:  /afs/crc.nd.edu/x86_64_linux/g/gromacs/2022.1/build-plumed/share/gromacs/top
;   Command line:
;     /scratch365/mcarlozo/ES-FFO/Opt_ES/ift_val_opt/project.py run -o IFT_val -j 895ca8c5dc430c8321f2168715bfac58
;

[ defaults ]
; nbfunc        comb-rule       gen-pairs       fudgeLJ fudgeQQ
1               2               yes              0.5       0.8333333

[ atomtypes ]
; name    at.num    mass    charge ptype  sigma      epsilon
C1             6  12.010780  0.00000000  A       0.222472       0.595916
S1            16  32.065500  0.00000000  A       0.440882       0.970885
O1             8  15.999430  0.00000000  A       0.320107       0.813941
H1             1   1.007947  0.00000000  A       0.219614       0.081473


[ moleculetype ]
; Name            nrexcl
RES          3

[ atoms ]
;   nr       type  resnr residue  atom   cgnr    charge       mass  typeB    chargeB      massB
; residue    1 RES rtp RES q -0.0
    1         C1      1    RES      C      1 -0.49284900  12.010780   ; qtot -0.492849
    2         S1      1    RES      S      2 0.35789200  32.065500   ; qtot -0.134957
    3         O1      1    RES      O      3 -0.48545800  15.999430   ; qtot -0.620415
    4         C1      1    RES      C      4 -0.49284900  12.010780   ; qtot -1.113264
    5         H1      1    RES      H      5 0.18554400   1.007947   ; qtot -0.927720
    6         H1      1    RES      H      6 0.18554400   1.007947   ; qtot -0.742176
    7         H1      1    RES      H      7 0.18554400   1.007947   ; qtot -0.556632
    8         H1      1    RES      H      8 0.18554400   1.007947   ; qtot -0.371088
    9         H1      1    RES      H      9 0.18554400   1.007947   ; qtot -0.185544
   10         H1      1    RES      H     10 0.18554400   1.007947   ; qtot -0.000000

[ bonds ]
;    ai     aj funct         c0         c1         c2         c3
      1      2     1   0.18070 195644.283000
      1      5     1   0.10930 281080.370000
      1      6     1   0.10930 281080.370000
      1      7     1   0.10930 281080.370000
      2      3     1   0.14970 375471.133000
      2      4     1   0.18070 195644.283000
      4      8     1   0.10930 281080.370000
      4      9     1   0.10930 281080.370000
      4     10     1   0.10930 281080.370000

[ pairs ]
;    ai     aj funct         c0         c1         c2         c3
      3      5     1
      4      5     1
      3      6     1
      4      6     1
      3      7     1
      4      7     1
      1      8     1
      3      8     1
      1      9     1
      3      9     1
      1     10     1
      3     10     1

[ angles ]
;    ai     aj     ak funct         c0         c1         c2         c3
      1      2      3     1   106.2263752 343.587000
      1      2      4     1   96.8298674 325.012000
      2      1      5     1   108.6327980 454.219000
      2      1      6     1   108.6327980 454.219000
      2      1      7     1   108.6327980 454.219000
      2      4      8     1   108.6327980 454.219000
      2      4      9     1   108.6327980 454.219000
      2      4     10     1   108.6327980 454.219000
      3      2      4     1   106.2263752 343.587000
      5      1      6     1   109.5495304 327.856000
      5      1      7     1   109.5495304 327.856000
      6      1      7     1   109.5495304 327.856000
      8      4      9     1   109.5495304 327.856000
      8      4     10     1   109.5495304 327.856000
      9      4     10     1   109.5495304 327.856000

[ dihedrals ]
;    ai     aj     ak     al funct         c0         c1         c2         c3         c4         c5
      1      2      4      8     1  0.0000000  0.8370000  3
      1      2      4      9     1  0.0000000  0.8370000  3
      1      2      4     10     1  0.0000000  0.8370000  3
      3      2      1      5     1  0.0000000  0.8370000  3
      3      2      1      6     1  0.0000000  0.8370000  3
      3      2      1      7     1  0.0000000  0.8370000  3
      3      2      4      8     1  0.0000000  0.8370000  3
      3      2      4      9     1  0.0000000  0.8370000  3
      3      2      4     10     1  0.0000000  0.8370000  3
      4      2      1      5     1  0.0000000  0.8370000  3
      4      2      1      6     1  0.0000000  0.8370000  3
      4      2      1      7     1  0.0000000  0.8370000  3

[ system ]
; Name
Generic title

[ molecules ]
; Compound       #mols
RES               5216
